n -t 0 -s 0 -S DLABEL -l "A1" -L ""
n -t 0 -s 1 -S DLABEL -l "B1" -L ""
n -t 0 -s 2 -S DLABEL -l "C1" -L ""
n -t 0 -s 3 -S DLABEL -l "D1" -L ""
n -t 0 -s 4 -S DLABEL -l "E1" -L ""
n -t 0 -s 5 -S DLABEL -l "H1" -L ""
n -t 0 -s 6 -S DLABEL -l "A2" -L ""
n -t 0 -s 7 -S DLABEL -l "B2" -L ""
n -t 0 -s 8 -S DLABEL -l "C2" -L ""
n -t 0 -s 9 -S DLABEL -l "D2" -L ""
n -t 0 -s 10 -S DLABEL -l "E2" -L ""
n -t 0 -s 11 -S DLABEL -l "H2" -L ""
n -t 0 -s 12 -S DLABEL -l "Z" -L ""
V -t * -v 1.0a5 -a 0
A -t * -n 1 -p 0 -o 0x7fffffff -c 30 -a 1
A -t * -h 1 -m 1073741823 -s 0
c -t * -i 1 -n Blue
c -t * -i 2 -n Red
n -t * -a 0 -s 0 -S UP -v circle -c red -i red
n -t * -a 1 -s 1 -S UP -v circle -c orange -i orange
n -t * -a 2 -s 2 -S UP -v circle -c brown -i brown
n -t * -a 3 -s 3 -S UP -v circle -c blue -i blue
n -t * -a 4 -s 4 -S UP -v circle -c green -i green
n -t * -a 5 -s 5 -S UP -v circle -c navy -i navy
n -t * -a 6 -s 6 -S UP -v circle -c red -i red
n -t * -a 7 -s 7 -S UP -v circle -c orange -i orange
n -t * -a 8 -s 8 -S UP -v circle -c brown -i brown
n -t * -a 9 -s 9 -S UP -v circle -c blue -i blue
n -t * -a 10 -s 10 -S UP -v circle -c green -i green
n -t * -a 11 -s 11 -S UP -v circle -c navy -i navy
n -t * -a 12 -s 12 -S UP -v circle -c navy -i navy
l -t * -s 0 -d 5 -S UP -r 10000000 -D 0.02 -c black
l -t * -s 1 -d 5 -S UP -r 10000000 -D 0.02 -c black
l -t * -s 2 -d 5 -S UP -r 10000000 -D 0.02 -c black
l -t * -s 3 -d 5 -S UP -r 10000000 -D 0.02 -c black
l -t * -s 4 -d 5 -S UP -r 10000000 -D 0.02 -c black
l -t * -s 6 -d 11 -S UP -r 10000000 -D 0.02 -c black
l -t * -s 7 -d 11 -S UP -r 10000000 -D 0.02 -c black
l -t * -s 8 -d 11 -S UP -r 10000000 -D 0.02 -c black
l -t * -s 9 -d 11 -S UP -r 10000000 -D 0.02 -c black
l -t * -s 10 -d 11 -S UP -r 10000000 -D 0.02 -c black
l -t * -s 5 -d 12 -S UP -r 100000 -D 0.02 -c black
l -t * -s 11 -d 12 -S UP -r 100000 -D 0.02 -c black
+ -t 0.000169788487334637 -s 0 -d 5 -p rtProtoDV -e 13 -c 0 -i 0 -a 0 -x {0.2 5.1 -1 ------- null}
- -t 0.000169788487334637 -s 0 -d 5 -p rtProtoDV -e 13 -c 0 -i 0 -a 0 -x {0.2 5.1 -1 ------- null}
h -t 0.000169788487334637 -s 0 -d 5 -p rtProtoDV -e 13 -c 0 -i 0 -a 0 -x {0.2 5.1 -1 ------- null}
+ -t 0.00710233021858257 -s 2 -d 5 -p rtProtoDV -e 13 -c 0 -i 1 -a 0 -x {2.2 5.1 -1 ------- null}
- -t 0.00710233021858257 -s 2 -d 5 -p rtProtoDV -e 13 -c 0 -i 1 -a 0 -x {2.2 5.1 -1 ------- null}
h -t 0.00710233021858257 -s 2 -d 5 -p rtProtoDV -e 13 -c 0 -i 1 -a 0 -x {2.2 5.1 -1 ------- null}
r -t 0.0201801884873346 -s 0 -d 5 -p rtProtoDV -e 13 -c 0 -i 0 -a 0 -x {0.2 5.1 -1 ------- null}
r -t 0.0271127302185826 -s 2 -d 5 -p rtProtoDV -e 13 -c 0 -i 1 -a 0 -x {2.2 5.1 -1 ------- null}
+ -t 0.04406133552271 -s 3 -d 5 -p rtProtoDV -e 13 -c 0 -i 2 -a 0 -x {3.2 5.1 -1 ------- null}
- -t 0.04406133552271 -s 3 -d 5 -p rtProtoDV -e 13 -c 0 -i 2 -a 0 -x {3.2 5.1 -1 ------- null}
h -t 0.04406133552271 -s 3 -d 5 -p rtProtoDV -e 13 -c 0 -i 2 -a 0 -x {3.2 5.1 -1 ------- null}
r -t 0.06407173552271 -s 3 -d 5 -p rtProtoDV -e 13 -c 0 -i 2 -a 0 -x {3.2 5.1 -1 ------- null}
+ -t 0.0820727032060142 -s 12 -d 5 -p rtProtoDV -e 13 -c 0 -i 3 -a 0 -x {12.11 5.1 -1 ------- null}
- -t 0.0820727032060142 -s 12 -d 5 -p rtProtoDV -e 13 -c 0 -i 3 -a 0 -x {12.11 5.1 -1 ------- null}
h -t 0.0820727032060142 -s 12 -d 5 -p rtProtoDV -e 13 -c 0 -i 3 -a 0 -x {12.11 5.1 -1 ------- null}
+ -t 0.0820727032060142 -s 12 -d 11 -p rtProtoDV -e 13 -c 0 -i 4 -a 0 -x {12.11 11.1 -1 ------- null}
- -t 0.0820727032060142 -s 12 -d 11 -p rtProtoDV -e 13 -c 0 -i 4 -a 0 -x {12.11 11.1 -1 ------- null}
h -t 0.0820727032060142 -s 12 -d 11 -p rtProtoDV -e 13 -c 0 -i 4 -a 0 -x {12.11 11.1 -1 ------- null}
r -t 0.103112703206014 -s 12 -d 5 -p rtProtoDV -e 13 -c 0 -i 3 -a 0 -x {12.11 5.1 -1 ------- null}
+ -t 0.103112703206014 -s 5 -d 0 -p rtProtoDV -e 13 -c 0 -i 5 -a 0 -x {5.1 0.2 -1 ------- null}
- -t 0.103112703206014 -s 5 -d 0 -p rtProtoDV -e 13 -c 0 -i 5 -a 0 -x {5.1 0.2 -1 ------- null}
h -t 0.103112703206014 -s 5 -d 0 -p rtProtoDV -e 13 -c 0 -i 5 -a 0 -x {5.1 0.2 -1 ------- null}
+ -t 0.103112703206014 -s 5 -d 1 -p rtProtoDV -e 13 -c 0 -i 6 -a 0 -x {5.1 1.2 -1 ------- null}
- -t 0.103112703206014 -s 5 -d 1 -p rtProtoDV -e 13 -c 0 -i 6 -a 0 -x {5.1 1.2 -1 ------- null}
h -t 0.103112703206014 -s 5 -d 1 -p rtProtoDV -e 13 -c 0 -i 6 -a 0 -x {5.1 1.2 -1 ------- null}
+ -t 0.103112703206014 -s 5 -d 2 -p rtProtoDV -e 13 -c 0 -i 7 -a 0 -x {5.1 2.2 -1 ------- null}
- -t 0.103112703206014 -s 5 -d 2 -p rtProtoDV -e 13 -c 0 -i 7 -a 0 -x {5.1 2.2 -1 ------- null}
h -t 0.103112703206014 -s 5 -d 2 -p rtProtoDV -e 13 -c 0 -i 7 -a 0 -x {5.1 2.2 -1 ------- null}
+ -t 0.103112703206014 -s 5 -d 3 -p rtProtoDV -e 13 -c 0 -i 8 -a 0 -x {5.1 3.2 -1 ------- null}
- -t 0.103112703206014 -s 5 -d 3 -p rtProtoDV -e 13 -c 0 -i 8 -a 0 -x {5.1 3.2 -1 ------- null}
h -t 0.103112703206014 -s 5 -d 3 -p rtProtoDV -e 13 -c 0 -i 8 -a 0 -x {5.1 3.2 -1 ------- null}
+ -t 0.103112703206014 -s 5 -d 4 -p rtProtoDV -e 13 -c 0 -i 9 -a 0 -x {5.1 4.2 -1 ------- null}
- -t 0.103112703206014 -s 5 -d 4 -p rtProtoDV -e 13 -c 0 -i 9 -a 0 -x {5.1 4.2 -1 ------- null}
h -t 0.103112703206014 -s 5 -d 4 -p rtProtoDV -e 13 -c 0 -i 9 -a 0 -x {5.1 4.2 -1 ------- null}
+ -t 0.103112703206014 -s 5 -d 12 -p rtProtoDV -e 13 -c 0 -i 10 -a 0 -x {5.1 12.11 -1 ------- null}
- -t 0.103112703206014 -s 5 -d 12 -p rtProtoDV -e 13 -c 0 -i 10 -a 0 -x {5.1 12.11 -1 ------- null}
h -t 0.103112703206014 -s 5 -d 12 -p rtProtoDV -e 13 -c 0 -i 10 -a 0 -x {5.1 12.11 -1 ------- null}
r -t 0.103112703206014 -s 12 -d 11 -p rtProtoDV -e 13 -c 0 -i 4 -a 0 -x {12.11 11.1 -1 ------- null}
+ -t 0.103112703206014 -s 11 -d 6 -p rtProtoDV -e 13 -c 0 -i 11 -a 0 -x {11.1 6.2 -1 ------- null}
- -t 0.103112703206014 -s 11 -d 6 -p rtProtoDV -e 13 -c 0 -i 11 -a 0 -x {11.1 6.2 -1 ------- null}
h -t 0.103112703206014 -s 11 -d 6 -p rtProtoDV -e 13 -c 0 -i 11 -a 0 -x {11.1 6.2 -1 ------- null}
+ -t 0.103112703206014 -s 11 -d 7 -p rtProtoDV -e 13 -c 0 -i 12 -a 0 -x {11.1 7.2 -1 ------- null}
- -t 0.103112703206014 -s 11 -d 7 -p rtProtoDV -e 13 -c 0 -i 12 -a 0 -x {11.1 7.2 -1 ------- null}
h -t 0.103112703206014 -s 11 -d 7 -p rtProtoDV -e 13 -c 0 -i 12 -a 0 -x {11.1 7.2 -1 ------- null}
+ -t 0.103112703206014 -s 11 -d 8 -p rtProtoDV -e 13 -c 0 -i 13 -a 0 -x {11.1 8.2 -1 ------- null}
- -t 0.103112703206014 -s 11 -d 8 -p rtProtoDV -e 13 -c 0 -i 13 -a 0 -x {11.1 8.2 -1 ------- null}
h -t 0.103112703206014 -s 11 -d 8 -p rtProtoDV -e 13 -c 0 -i 13 -a 0 -x {11.1 8.2 -1 ------- null}
+ -t 0.103112703206014 -s 11 -d 9 -p rtProtoDV -e 13 -c 0 -i 14 -a 0 -x {11.1 9.2 -1 ------- null}
- -t 0.103112703206014 -s 11 -d 9 -p rtProtoDV -e 13 -c 0 -i 14 -a 0 -x {11.1 9.2 -1 ------- null}
h -t 0.103112703206014 -s 11 -d 9 -p rtProtoDV -e 13 -c 0 -i 14 -a 0 -x {11.1 9.2 -1 ------- null}
+ -t 0.103112703206014 -s 11 -d 10 -p rtProtoDV -e 13 -c 0 -i 15 -a 0 -x {11.1 10.2 -1 ------- null}
- -t 0.103112703206014 -s 11 -d 10 -p rtProtoDV -e 13 -c 0 -i 15 -a 0 -x {11.1 10.2 -1 ------- null}
h -t 0.103112703206014 -s 11 -d 10 -p rtProtoDV -e 13 -c 0 -i 15 -a 0 -x {11.1 10.2 -1 ------- null}
+ -t 0.103112703206014 -s 11 -d 12 -p rtProtoDV -e 13 -c 0 -i 16 -a 0 -x {11.1 12.11 -1 ------- null}
- -t 0.103112703206014 -s 11 -d 12 -p rtProtoDV -e 13 -c 0 -i 16 -a 0 -x {11.1 12.11 -1 ------- null}
h -t 0.103112703206014 -s 11 -d 12 -p rtProtoDV -e 13 -c 0 -i 16 -a 0 -x {11.1 12.11 -1 ------- null}
+ -t 0.117300875772397 -s 8 -d 11 -p rtProtoDV -e 13 -c 0 -i 17 -a 0 -x {8.2 11.1 -1 ------- null}
- -t 0.117300875772397 -s 8 -d 11 -p rtProtoDV -e 13 -c 0 -i 17 -a 0 -x {8.2 11.1 -1 ------- null}
h -t 0.117300875772397 -s 8 -d 11 -p rtProtoDV -e 13 -c 0 -i 17 -a 0 -x {8.2 11.1 -1 ------- null}
r -t 0.123123103206014 -s 5 -d 0 -p rtProtoDV -e 13 -c 0 -i 5 -a 0 -x {5.1 0.2 -1 ------- null}
+ -t 0.123123103206014 -s 0 -d 5 -p rtProtoDV -e 13 -c 0 -i 18 -a 0 -x {0.2 5.1 -1 ------- null}
- -t 0.123123103206014 -s 0 -d 5 -p rtProtoDV -e 13 -c 0 -i 18 -a 0 -x {0.2 5.1 -1 ------- null}
h -t 0.123123103206014 -s 0 -d 5 -p rtProtoDV -e 13 -c 0 -i 18 -a 0 -x {0.2 5.1 -1 ------- null}
r -t 0.123123103206014 -s 5 -d 1 -p rtProtoDV -e 13 -c 0 -i 6 -a 0 -x {5.1 1.2 -1 ------- null}
+ -t 0.123123103206014 -s 1 -d 5 -p rtProtoDV -e 13 -c 0 -i 19 -a 0 -x {1.2 5.1 -1 ------- null}
- -t 0.123123103206014 -s 1 -d 5 -p rtProtoDV -e 13 -c 0 -i 19 -a 0 -x {1.2 5.1 -1 ------- null}
h -t 0.123123103206014 -s 1 -d 5 -p rtProtoDV -e 13 -c 0 -i 19 -a 0 -x {1.2 5.1 -1 ------- null}
r -t 0.123123103206014 -s 5 -d 2 -p rtProtoDV -e 13 -c 0 -i 7 -a 0 -x {5.1 2.2 -1 ------- null}
+ -t 0.123123103206014 -s 2 -d 5 -p rtProtoDV -e 13 -c 0 -i 20 -a 0 -x {2.2 5.1 -1 ------- null}
- -t 0.123123103206014 -s 2 -d 5 -p rtProtoDV -e 13 -c 0 -i 20 -a 0 -x {2.2 5.1 -1 ------- null}
h -t 0.123123103206014 -s 2 -d 5 -p rtProtoDV -e 13 -c 0 -i 20 -a 0 -x {2.2 5.1 -1 ------- null}
r -t 0.123123103206014 -s 5 -d 3 -p rtProtoDV -e 13 -c 0 -i 8 -a 0 -x {5.1 3.2 -1 ------- null}
+ -t 0.123123103206014 -s 3 -d 5 -p rtProtoDV -e 13 -c 0 -i 21 -a 0 -x {3.2 5.1 -1 ------- null}
- -t 0.123123103206014 -s 3 -d 5 -p rtProtoDV -e 13 -c 0 -i 21 -a 0 -x {3.2 5.1 -1 ------- null}
h -t 0.123123103206014 -s 3 -d 5 -p rtProtoDV -e 13 -c 0 -i 21 -a 0 -x {3.2 5.1 -1 ------- null}
r -t 0.123123103206014 -s 5 -d 4 -p rtProtoDV -e 13 -c 0 -i 9 -a 0 -x {5.1 4.2 -1 ------- null}
+ -t 0.123123103206014 -s 4 -d 5 -p rtProtoDV -e 13 -c 0 -i 22 -a 0 -x {4.2 5.1 -1 ------- null}
- -t 0.123123103206014 -s 4 -d 5 -p rtProtoDV -e 13 -c 0 -i 22 -a 0 -x {4.2 5.1 -1 ------- null}
h -t 0.123123103206014 -s 4 -d 5 -p rtProtoDV -e 13 -c 0 -i 22 -a 0 -x {4.2 5.1 -1 ------- null}
r -t 0.123123103206014 -s 11 -d 6 -p rtProtoDV -e 13 -c 0 -i 11 -a 0 -x {11.1 6.2 -1 ------- null}
+ -t 0.123123103206014 -s 6 -d 11 -p rtProtoDV -e 13 -c 0 -i 23 -a 0 -x {6.2 11.1 -1 ------- null}
- -t 0.123123103206014 -s 6 -d 11 -p rtProtoDV -e 13 -c 0 -i 23 -a 0 -x {6.2 11.1 -1 ------- null}
h -t 0.123123103206014 -s 6 -d 11 -p rtProtoDV -e 13 -c 0 -i 23 -a 0 -x {6.2 11.1 -1 ------- null}
r -t 0.123123103206014 -s 11 -d 7 -p rtProtoDV -e 13 -c 0 -i 12 -a 0 -x {11.1 7.2 -1 ------- null}
+ -t 0.123123103206014 -s 7 -d 11 -p rtProtoDV -e 13 -c 0 -i 24 -a 0 -x {7.2 11.1 -1 ------- null}
- -t 0.123123103206014 -s 7 -d 11 -p rtProtoDV -e 13 -c 0 -i 24 -a 0 -x {7.2 11.1 -1 ------- null}
h -t 0.123123103206014 -s 7 -d 11 -p rtProtoDV -e 13 -c 0 -i 24 -a 0 -x {7.2 11.1 -1 ------- null}
r -t 0.123123103206014 -s 11 -d 8 -p rtProtoDV -e 13 -c 0 -i 13 -a 0 -x {11.1 8.2 -1 ------- null}
+ -t 0.123123103206014 -s 8 -d 11 -p rtProtoDV -e 13 -c 0 -i 25 -a 0 -x {8.2 11.1 -1 ------- null}
- -t 0.123123103206014 -s 8 -d 11 -p rtProtoDV -e 13 -c 0 -i 25 -a 0 -x {8.2 11.1 -1 ------- null}
h -t 0.123123103206014 -s 8 -d 11 -p rtProtoDV -e 13 -c 0 -i 25 -a 0 -x {8.2 11.1 -1 ------- null}
r -t 0.123123103206014 -s 11 -d 9 -p rtProtoDV -e 13 -c 0 -i 14 -a 0 -x {11.1 9.2 -1 ------- null}
+ -t 0.123123103206014 -s 9 -d 11 -p rtProtoDV -e 13 -c 0 -i 26 -a 0 -x {9.2 11.1 -1 ------- null}
- -t 0.123123103206014 -s 9 -d 11 -p rtProtoDV -e 13 -c 0 -i 26 -a 0 -x {9.2 11.1 -1 ------- null}
h -t 0.123123103206014 -s 9 -d 11 -p rtProtoDV -e 13 -c 0 -i 26 -a 0 -x {9.2 11.1 -1 ------- null}
r -t 0.123123103206014 -s 11 -d 10 -p rtProtoDV -e 13 -c 0 -i 15 -a 0 -x {11.1 10.2 -1 ------- null}
+ -t 0.123123103206014 -s 10 -d 11 -p rtProtoDV -e 13 -c 0 -i 27 -a 0 -x {10.2 11.1 -1 ------- null}
- -t 0.123123103206014 -s 10 -d 11 -p rtProtoDV -e 13 -c 0 -i 27 -a 0 -x {10.2 11.1 -1 ------- null}
h -t 0.123123103206014 -s 10 -d 11 -p rtProtoDV -e 13 -c 0 -i 27 -a 0 -x {10.2 11.1 -1 ------- null}
r -t 0.124152703206014 -s 5 -d 12 -p rtProtoDV -e 13 -c 0 -i 10 -a 0 -x {5.1 12.11 -1 ------- null}
+ -t 0.124152703206014 -s 12 -d 5 -p rtProtoDV -e 13 -c 0 -i 28 -a 0 -x {12.11 5.1 -1 ------- null}
- -t 0.124152703206014 -s 12 -d 5 -p rtProtoDV -e 13 -c 0 -i 28 -a 0 -x {12.11 5.1 -1 ------- null}
h -t 0.124152703206014 -s 12 -d 5 -p rtProtoDV -e 13 -c 0 -i 28 -a 0 -x {12.11 5.1 -1 ------- null}
+ -t 0.124152703206014 -s 12 -d 11 -p rtProtoDV -e 13 -c 0 -i 29 -a 0 -x {12.11 11.1 -1 ------- null}
- -t 0.124152703206014 -s 12 -d 11 -p rtProtoDV -e 13 -c 0 -i 29 -a 0 -x {12.11 11.1 -1 ------- null}
h -t 0.124152703206014 -s 12 -d 11 -p rtProtoDV -e 13 -c 0 -i 29 -a 0 -x {12.11 11.1 -1 ------- null}
r -t 0.124152703206014 -s 11 -d 12 -p rtProtoDV -e 13 -c 0 -i 16 -a 0 -x {11.1 12.11 -1 ------- null}
+ -t 0.124152703206014 -s 12 -d 5 -p rtProtoDV -e 13 -c 0 -i 30 -a 0 -x {12.11 5.1 -1 ------- null}
+ -t 0.124152703206014 -s 12 -d 11 -p rtProtoDV -e 13 -c 0 -i 31 -a 0 -x {12.11 11.1 -1 ------- null}
- -t 0.125192703206014 -s 12 -d 5 -p rtProtoDV -e 13 -c 0 -i 30 -a 0 -x {12.11 5.1 -1 ------- null}
h -t 0.125192703206014 -s 12 -d 5 -p rtProtoDV -e 13 -c 0 -i 30 -a 0 -x {12.11 5.1 -1 ------- null}
- -t 0.125192703206014 -s 12 -d 11 -p rtProtoDV -e 13 -c 0 -i 31 -a 0 -x {12.11 11.1 -1 ------- null}
h -t 0.125192703206014 -s 12 -d 11 -p rtProtoDV -e 13 -c 0 -i 31 -a 0 -x {12.11 11.1 -1 ------- null}
r -t 0.137311275772397 -s 8 -d 11 -p rtProtoDV -e 13 -c 0 -i 17 -a 0 -x {8.2 11.1 -1 ------- null}
r -t 0.143133503206014 -s 0 -d 5 -p rtProtoDV -e 13 -c 0 -i 18 -a 0 -x {0.2 5.1 -1 ------- null}
r -t 0.143133503206014 -s 1 -d 5 -p rtProtoDV -e 13 -c 0 -i 19 -a 0 -x {1.2 5.1 -1 ------- null}
r -t 0.143133503206014 -s 2 -d 5 -p rtProtoDV -e 13 -c 0 -i 20 -a 0 -x {2.2 5.1 -1 ------- null}
r -t 0.143133503206014 -s 3 -d 5 -p rtProtoDV -e 13 -c 0 -i 21 -a 0 -x {3.2 5.1 -1 ------- null}
r -t 0.143133503206014 -s 4 -d 5 -p rtProtoDV -e 13 -c 0 -i 22 -a 0 -x {4.2 5.1 -1 ------- null}
r -t 0.143133503206014 -s 6 -d 11 -p rtProtoDV -e 13 -c 0 -i 23 -a 0 -x {6.2 11.1 -1 ------- null}
r -t 0.143133503206014 -s 7 -d 11 -p rtProtoDV -e 13 -c 0 -i 24 -a 0 -x {7.2 11.1 -1 ------- null}
r -t 0.143133503206014 -s 8 -d 11 -p rtProtoDV -e 13 -c 0 -i 25 -a 0 -x {8.2 11.1 -1 ------- null}
r -t 0.143133503206014 -s 9 -d 11 -p rtProtoDV -e 13 -c 0 -i 26 -a 0 -x {9.2 11.1 -1 ------- null}
r -t 0.143133503206014 -s 10 -d 11 -p rtProtoDV -e 13 -c 0 -i 27 -a 0 -x {10.2 11.1 -1 ------- null}
r -t 0.145192703206014 -s 12 -d 5 -p rtProtoDV -e 13 -c 0 -i 28 -a 0 -x {12.11 5.1 -1 ------- null}
r -t 0.145192703206014 -s 12 -d 11 -p rtProtoDV -e 13 -c 0 -i 29 -a 0 -x {12.11 11.1 -1 ------- null}
+ -t 0.145192703206014 -s 11 -d 6 -p rtProtoDV -e 13 -c 0 -i 32 -a 0 -x {11.1 6.2 -1 ------- null}
- -t 0.145192703206014 -s 11 -d 6 -p rtProtoDV -e 13 -c 0 -i 32 -a 0 -x {11.1 6.2 -1 ------- null}
h -t 0.145192703206014 -s 11 -d 6 -p rtProtoDV -e 13 -c 0 -i 32 -a 0 -x {11.1 6.2 -1 ------- null}
+ -t 0.145192703206014 -s 11 -d 7 -p rtProtoDV -e 13 -c 0 -i 33 -a 0 -x {11.1 7.2 -1 ------- null}
- -t 0.145192703206014 -s 11 -d 7 -p rtProtoDV -e 13 -c 0 -i 33 -a 0 -x {11.1 7.2 -1 ------- null}
h -t 0.145192703206014 -s 11 -d 7 -p rtProtoDV -e 13 -c 0 -i 33 -a 0 -x {11.1 7.2 -1 ------- null}
+ -t 0.145192703206014 -s 11 -d 8 -p rtProtoDV -e 13 -c 0 -i 34 -a 0 -x {11.1 8.2 -1 ------- null}
- -t 0.145192703206014 -s 11 -d 8 -p rtProtoDV -e 13 -c 0 -i 34 -a 0 -x {11.1 8.2 -1 ------- null}
h -t 0.145192703206014 -s 11 -d 8 -p rtProtoDV -e 13 -c 0 -i 34 -a 0 -x {11.1 8.2 -1 ------- null}
+ -t 0.145192703206014 -s 11 -d 9 -p rtProtoDV -e 13 -c 0 -i 35 -a 0 -x {11.1 9.2 -1 ------- null}
- -t 0.145192703206014 -s 11 -d 9 -p rtProtoDV -e 13 -c 0 -i 35 -a 0 -x {11.1 9.2 -1 ------- null}
h -t 0.145192703206014 -s 11 -d 9 -p rtProtoDV -e 13 -c 0 -i 35 -a 0 -x {11.1 9.2 -1 ------- null}
+ -t 0.145192703206014 -s 11 -d 10 -p rtProtoDV -e 13 -c 0 -i 36 -a 0 -x {11.1 10.2 -1 ------- null}
- -t 0.145192703206014 -s 11 -d 10 -p rtProtoDV -e 13 -c 0 -i 36 -a 0 -x {11.1 10.2 -1 ------- null}
h -t 0.145192703206014 -s 11 -d 10 -p rtProtoDV -e 13 -c 0 -i 36 -a 0 -x {11.1 10.2 -1 ------- null}
+ -t 0.145192703206014 -s 11 -d 12 -p rtProtoDV -e 13 -c 0 -i 37 -a 0 -x {11.1 12.11 -1 ------- null}
- -t 0.145192703206014 -s 11 -d 12 -p rtProtoDV -e 13 -c 0 -i 37 -a 0 -x {11.1 12.11 -1 ------- null}
h -t 0.145192703206014 -s 11 -d 12 -p rtProtoDV -e 13 -c 0 -i 37 -a 0 -x {11.1 12.11 -1 ------- null}
r -t 0.146232703206014 -s 12 -d 5 -p rtProtoDV -e 13 -c 0 -i 30 -a 0 -x {12.11 5.1 -1 ------- null}
+ -t 0.146232703206014 -s 5 -d 0 -p rtProtoDV -e 13 -c 0 -i 38 -a 0 -x {5.1 0.2 -1 ------- null}
- -t 0.146232703206014 -s 5 -d 0 -p rtProtoDV -e 13 -c 0 -i 38 -a 0 -x {5.1 0.2 -1 ------- null}
h -t 0.146232703206014 -s 5 -d 0 -p rtProtoDV -e 13 -c 0 -i 38 -a 0 -x {5.1 0.2 -1 ------- null}
+ -t 0.146232703206014 -s 5 -d 1 -p rtProtoDV -e 13 -c 0 -i 39 -a 0 -x {5.1 1.2 -1 ------- null}
- -t 0.146232703206014 -s 5 -d 1 -p rtProtoDV -e 13 -c 0 -i 39 -a 0 -x {5.1 1.2 -1 ------- null}
h -t 0.146232703206014 -s 5 -d 1 -p rtProtoDV -e 13 -c 0 -i 39 -a 0 -x {5.1 1.2 -1 ------- null}
+ -t 0.146232703206014 -s 5 -d 2 -p rtProtoDV -e 13 -c 0 -i 40 -a 0 -x {5.1 2.2 -1 ------- null}
- -t 0.146232703206014 -s 5 -d 2 -p rtProtoDV -e 13 -c 0 -i 40 -a 0 -x {5.1 2.2 -1 ------- null}
h -t 0.146232703206014 -s 5 -d 2 -p rtProtoDV -e 13 -c 0 -i 40 -a 0 -x {5.1 2.2 -1 ------- null}
+ -t 0.146232703206014 -s 5 -d 3 -p rtProtoDV -e 13 -c 0 -i 41 -a 0 -x {5.1 3.2 -1 ------- null}
- -t 0.146232703206014 -s 5 -d 3 -p rtProtoDV -e 13 -c 0 -i 41 -a 0 -x {5.1 3.2 -1 ------- null}
h -t 0.146232703206014 -s 5 -d 3 -p rtProtoDV -e 13 -c 0 -i 41 -a 0 -x {5.1 3.2 -1 ------- null}
+ -t 0.146232703206014 -s 5 -d 4 -p rtProtoDV -e 13 -c 0 -i 42 -a 0 -x {5.1 4.2 -1 ------- null}
- -t 0.146232703206014 -s 5 -d 4 -p rtProtoDV -e 13 -c 0 -i 42 -a 0 -x {5.1 4.2 -1 ------- null}
h -t 0.146232703206014 -s 5 -d 4 -p rtProtoDV -e 13 -c 0 -i 42 -a 0 -x {5.1 4.2 -1 ------- null}
+ -t 0.146232703206014 -s 5 -d 12 -p rtProtoDV -e 13 -c 0 -i 43 -a 0 -x {5.1 12.11 -1 ------- null}
- -t 0.146232703206014 -s 5 -d 12 -p rtProtoDV -e 13 -c 0 -i 43 -a 0 -x {5.1 12.11 -1 ------- null}
h -t 0.146232703206014 -s 5 -d 12 -p rtProtoDV -e 13 -c 0 -i 43 -a 0 -x {5.1 12.11 -1 ------- null}
r -t 0.146232703206014 -s 12 -d 11 -p rtProtoDV -e 13 -c 0 -i 31 -a 0 -x {12.11 11.1 -1 ------- null}
+ -t 0.154539528840473 -s 10 -d 11 -p rtProtoDV -e 13 -c 0 -i 44 -a 0 -x {10.2 11.1 -1 ------- null}
- -t 0.154539528840473 -s 10 -d 11 -p rtProtoDV -e 13 -c 0 -i 44 -a 0 -x {10.2 11.1 -1 ------- null}
h -t 0.154539528840473 -s 10 -d 11 -p rtProtoDV -e 13 -c 0 -i 44 -a 0 -x {10.2 11.1 -1 ------- null}
+ -t 0.156480885882155 -s 6 -d 11 -p rtProtoDV -e 13 -c 0 -i 45 -a 0 -x {6.2 11.1 -1 ------- null}
- -t 0.156480885882155 -s 6 -d 11 -p rtProtoDV -e 13 -c 0 -i 45 -a 0 -x {6.2 11.1 -1 ------- null}
h -t 0.156480885882155 -s 6 -d 11 -p rtProtoDV -e 13 -c 0 -i 45 -a 0 -x {6.2 11.1 -1 ------- null}
r -t 0.165203103206014 -s 11 -d 6 -p rtProtoDV -e 13 -c 0 -i 32 -a 0 -x {11.1 6.2 -1 ------- null}
+ -t 0.165203103206014 -s 6 -d 11 -p rtProtoDV -e 13 -c 0 -i 46 -a 0 -x {6.2 11.1 -1 ------- null}
- -t 0.165203103206014 -s 6 -d 11 -p rtProtoDV -e 13 -c 0 -i 46 -a 0 -x {6.2 11.1 -1 ------- null}
h -t 0.165203103206014 -s 6 -d 11 -p rtProtoDV -e 13 -c 0 -i 46 -a 0 -x {6.2 11.1 -1 ------- null}
r -t 0.165203103206014 -s 11 -d 7 -p rtProtoDV -e 13 -c 0 -i 33 -a 0 -x {11.1 7.2 -1 ------- null}
+ -t 0.165203103206014 -s 7 -d 11 -p rtProtoDV -e 13 -c 0 -i 47 -a 0 -x {7.2 11.1 -1 ------- null}
- -t 0.165203103206014 -s 7 -d 11 -p rtProtoDV -e 13 -c 0 -i 47 -a 0 -x {7.2 11.1 -1 ------- null}
h -t 0.165203103206014 -s 7 -d 11 -p rtProtoDV -e 13 -c 0 -i 47 -a 0 -x {7.2 11.1 -1 ------- null}
r -t 0.165203103206014 -s 11 -d 8 -p rtProtoDV -e 13 -c 0 -i 34 -a 0 -x {11.1 8.2 -1 ------- null}
+ -t 0.165203103206014 -s 8 -d 11 -p rtProtoDV -e 13 -c 0 -i 48 -a 0 -x {8.2 11.1 -1 ------- null}
- -t 0.165203103206014 -s 8 -d 11 -p rtProtoDV -e 13 -c 0 -i 48 -a 0 -x {8.2 11.1 -1 ------- null}
h -t 0.165203103206014 -s 8 -d 11 -p rtProtoDV -e 13 -c 0 -i 48 -a 0 -x {8.2 11.1 -1 ------- null}
r -t 0.165203103206014 -s 11 -d 9 -p rtProtoDV -e 13 -c 0 -i 35 -a 0 -x {11.1 9.2 -1 ------- null}
+ -t 0.165203103206014 -s 9 -d 11 -p rtProtoDV -e 13 -c 0 -i 49 -a 0 -x {9.2 11.1 -1 ------- null}
- -t 0.165203103206014 -s 9 -d 11 -p rtProtoDV -e 13 -c 0 -i 49 -a 0 -x {9.2 11.1 -1 ------- null}
h -t 0.165203103206014 -s 9 -d 11 -p rtProtoDV -e 13 -c 0 -i 49 -a 0 -x {9.2 11.1 -1 ------- null}
r -t 0.165203103206014 -s 11 -d 10 -p rtProtoDV -e 13 -c 0 -i 36 -a 0 -x {11.1 10.2 -1 ------- null}
+ -t 0.165203103206014 -s 10 -d 11 -p rtProtoDV -e 13 -c 0 -i 50 -a 0 -x {10.2 11.1 -1 ------- null}
- -t 0.165203103206014 -s 10 -d 11 -p rtProtoDV -e 13 -c 0 -i 50 -a 0 -x {10.2 11.1 -1 ------- null}
h -t 0.165203103206014 -s 10 -d 11 -p rtProtoDV -e 13 -c 0 -i 50 -a 0 -x {10.2 11.1 -1 ------- null}
r -t 0.166232703206014 -s 11 -d 12 -p rtProtoDV -e 13 -c 0 -i 37 -a 0 -x {11.1 12.11 -1 ------- null}
r -t 0.166243103206014 -s 5 -d 0 -p rtProtoDV -e 13 -c 0 -i 38 -a 0 -x {5.1 0.2 -1 ------- null}
+ -t 0.166243103206014 -s 0 -d 5 -p rtProtoDV -e 13 -c 0 -i 51 -a 0 -x {0.2 5.1 -1 ------- null}
- -t 0.166243103206014 -s 0 -d 5 -p rtProtoDV -e 13 -c 0 -i 51 -a 0 -x {0.2 5.1 -1 ------- null}
h -t 0.166243103206014 -s 0 -d 5 -p rtProtoDV -e 13 -c 0 -i 51 -a 0 -x {0.2 5.1 -1 ------- null}
r -t 0.166243103206014 -s 5 -d 1 -p rtProtoDV -e 13 -c 0 -i 39 -a 0 -x {5.1 1.2 -1 ------- null}
+ -t 0.166243103206014 -s 1 -d 5 -p rtProtoDV -e 13 -c 0 -i 52 -a 0 -x {1.2 5.1 -1 ------- null}
- -t 0.166243103206014 -s 1 -d 5 -p rtProtoDV -e 13 -c 0 -i 52 -a 0 -x {1.2 5.1 -1 ------- null}
h -t 0.166243103206014 -s 1 -d 5 -p rtProtoDV -e 13 -c 0 -i 52 -a 0 -x {1.2 5.1 -1 ------- null}
r -t 0.166243103206014 -s 5 -d 2 -p rtProtoDV -e 13 -c 0 -i 40 -a 0 -x {5.1 2.2 -1 ------- null}
+ -t 0.166243103206014 -s 2 -d 5 -p rtProtoDV -e 13 -c 0 -i 53 -a 0 -x {2.2 5.1 -1 ------- null}
- -t 0.166243103206014 -s 2 -d 5 -p rtProtoDV -e 13 -c 0 -i 53 -a 0 -x {2.2 5.1 -1 ------- null}
h -t 0.166243103206014 -s 2 -d 5 -p rtProtoDV -e 13 -c 0 -i 53 -a 0 -x {2.2 5.1 -1 ------- null}
r -t 0.166243103206014 -s 5 -d 3 -p rtProtoDV -e 13 -c 0 -i 41 -a 0 -x {5.1 3.2 -1 ------- null}
+ -t 0.166243103206014 -s 3 -d 5 -p rtProtoDV -e 13 -c 0 -i 54 -a 0 -x {3.2 5.1 -1 ------- null}
- -t 0.166243103206014 -s 3 -d 5 -p rtProtoDV -e 13 -c 0 -i 54 -a 0 -x {3.2 5.1 -1 ------- null}
h -t 0.166243103206014 -s 3 -d 5 -p rtProtoDV -e 13 -c 0 -i 54 -a 0 -x {3.2 5.1 -1 ------- null}
r -t 0.166243103206014 -s 5 -d 4 -p rtProtoDV -e 13 -c 0 -i 42 -a 0 -x {5.1 4.2 -1 ------- null}
+ -t 0.166243103206014 -s 4 -d 5 -p rtProtoDV -e 13 -c 0 -i 55 -a 0 -x {4.2 5.1 -1 ------- null}
- -t 0.166243103206014 -s 4 -d 5 -p rtProtoDV -e 13 -c 0 -i 55 -a 0 -x {4.2 5.1 -1 ------- null}
h -t 0.166243103206014 -s 4 -d 5 -p rtProtoDV -e 13 -c 0 -i 55 -a 0 -x {4.2 5.1 -1 ------- null}
r -t 0.167272703206014 -s 5 -d 12 -p rtProtoDV -e 13 -c 0 -i 43 -a 0 -x {5.1 12.11 -1 ------- null}
r -t 0.174549928840473 -s 10 -d 11 -p rtProtoDV -e 13 -c 0 -i 44 -a 0 -x {10.2 11.1 -1 ------- null}
r -t 0.176491285882155 -s 6 -d 11 -p rtProtoDV -e 13 -c 0 -i 45 -a 0 -x {6.2 11.1 -1 ------- null}
r -t 0.185213503206014 -s 6 -d 11 -p rtProtoDV -e 13 -c 0 -i 46 -a 0 -x {6.2 11.1 -1 ------- null}
r -t 0.185213503206014 -s 7 -d 11 -p rtProtoDV -e 13 -c 0 -i 47 -a 0 -x {7.2 11.1 -1 ------- null}
r -t 0.185213503206014 -s 8 -d 11 -p rtProtoDV -e 13 -c 0 -i 48 -a 0 -x {8.2 11.1 -1 ------- null}
r -t 0.185213503206014 -s 9 -d 11 -p rtProtoDV -e 13 -c 0 -i 49 -a 0 -x {9.2 11.1 -1 ------- null}
r -t 0.185213503206014 -s 10 -d 11 -p rtProtoDV -e 13 -c 0 -i 50 -a 0 -x {10.2 11.1 -1 ------- null}
r -t 0.186253503206014 -s 0 -d 5 -p rtProtoDV -e 13 -c 0 -i 51 -a 0 -x {0.2 5.1 -1 ------- null}
r -t 0.186253503206014 -s 1 -d 5 -p rtProtoDV -e 13 -c 0 -i 52 -a 0 -x {1.2 5.1 -1 ------- null}
r -t 0.186253503206014 -s 2 -d 5 -p rtProtoDV -e 13 -c 0 -i 53 -a 0 -x {2.2 5.1 -1 ------- null}
r -t 0.186253503206014 -s 3 -d 5 -p rtProtoDV -e 13 -c 0 -i 54 -a 0 -x {3.2 5.1 -1 ------- null}
r -t 0.186253503206014 -s 4 -d 5 -p rtProtoDV -e 13 -c 0 -i 55 -a 0 -x {4.2 5.1 -1 ------- null}
+ -t 0.22058669092161 -s 4 -d 5 -p rtProtoDV -e 13 -c 0 -i 56 -a 0 -x {4.2 5.1 -1 ------- null}
- -t 0.22058669092161 -s 4 -d 5 -p rtProtoDV -e 13 -c 0 -i 56 -a 0 -x {4.2 5.1 -1 ------- null}
h -t 0.22058669092161 -s 4 -d 5 -p rtProtoDV -e 13 -c 0 -i 56 -a 0 -x {4.2 5.1 -1 ------- null}
r -t 0.24059709092161 -s 4 -d 5 -p rtProtoDV -e 13 -c 0 -i 56 -a 0 -x {4.2 5.1 -1 ------- null}
+ -t 0.277940357931862 -s 1 -d 5 -p rtProtoDV -e 13 -c 0 -i 57 -a 0 -x {1.2 5.1 -1 ------- null}
- -t 0.277940357931862 -s 1 -d 5 -p rtProtoDV -e 13 -c 0 -i 57 -a 0 -x {1.2 5.1 -1 ------- null}
h -t 0.277940357931862 -s 1 -d 5 -p rtProtoDV -e 13 -c 0 -i 57 -a 0 -x {1.2 5.1 -1 ------- null}
r -t 0.297950757931862 -s 1 -d 5 -p rtProtoDV -e 13 -c 0 -i 57 -a 0 -x {1.2 5.1 -1 ------- null}
+ -t 0.31943257167909 -s 9 -d 11 -p rtProtoDV -e 13 -c 0 -i 58 -a 0 -x {9.2 11.1 -1 ------- null}
- -t 0.31943257167909 -s 9 -d 11 -p rtProtoDV -e 13 -c 0 -i 58 -a 0 -x {9.2 11.1 -1 ------- null}
h -t 0.31943257167909 -s 9 -d 11 -p rtProtoDV -e 13 -c 0 -i 58 -a 0 -x {9.2 11.1 -1 ------- null}
r -t 0.339442971679089 -s 9 -d 11 -p rtProtoDV -e 13 -c 0 -i 58 -a 0 -x {9.2 11.1 -1 ------- null}
+ -t 0.399577726796073 -s 5 -d 0 -p rtProtoDV -e 13 -c 0 -i 59 -a 0 -x {5.1 0.2 -1 ------- null}
- -t 0.399577726796073 -s 5 -d 0 -p rtProtoDV -e 13 -c 0 -i 59 -a 0 -x {5.1 0.2 -1 ------- null}
h -t 0.399577726796073 -s 5 -d 0 -p rtProtoDV -e 13 -c 0 -i 59 -a 0 -x {5.1 0.2 -1 ------- null}
+ -t 0.399577726796073 -s 5 -d 1 -p rtProtoDV -e 13 -c 0 -i 60 -a 0 -x {5.1 1.2 -1 ------- null}
- -t 0.399577726796073 -s 5 -d 1 -p rtProtoDV -e 13 -c 0 -i 60 -a 0 -x {5.1 1.2 -1 ------- null}
h -t 0.399577726796073 -s 5 -d 1 -p rtProtoDV -e 13 -c 0 -i 60 -a 0 -x {5.1 1.2 -1 ------- null}
+ -t 0.399577726796073 -s 5 -d 2 -p rtProtoDV -e 13 -c 0 -i 61 -a 0 -x {5.1 2.2 -1 ------- null}
- -t 0.399577726796073 -s 5 -d 2 -p rtProtoDV -e 13 -c 0 -i 61 -a 0 -x {5.1 2.2 -1 ------- null}
h -t 0.399577726796073 -s 5 -d 2 -p rtProtoDV -e 13 -c 0 -i 61 -a 0 -x {5.1 2.2 -1 ------- null}
+ -t 0.399577726796073 -s 5 -d 3 -p rtProtoDV -e 13 -c 0 -i 62 -a 0 -x {5.1 3.2 -1 ------- null}
- -t 0.399577726796073 -s 5 -d 3 -p rtProtoDV -e 13 -c 0 -i 62 -a 0 -x {5.1 3.2 -1 ------- null}
h -t 0.399577726796073 -s 5 -d 3 -p rtProtoDV -e 13 -c 0 -i 62 -a 0 -x {5.1 3.2 -1 ------- null}
+ -t 0.399577726796073 -s 5 -d 4 -p rtProtoDV -e 13 -c 0 -i 63 -a 0 -x {5.1 4.2 -1 ------- null}
- -t 0.399577726796073 -s 5 -d 4 -p rtProtoDV -e 13 -c 0 -i 63 -a 0 -x {5.1 4.2 -1 ------- null}
h -t 0.399577726796073 -s 5 -d 4 -p rtProtoDV -e 13 -c 0 -i 63 -a 0 -x {5.1 4.2 -1 ------- null}
+ -t 0.399577726796073 -s 5 -d 12 -p rtProtoDV -e 13 -c 0 -i 64 -a 0 -x {5.1 12.11 -1 ------- null}
- -t 0.399577726796073 -s 5 -d 12 -p rtProtoDV -e 13 -c 0 -i 64 -a 0 -x {5.1 12.11 -1 ------- null}
h -t 0.399577726796073 -s 5 -d 12 -p rtProtoDV -e 13 -c 0 -i 64 -a 0 -x {5.1 12.11 -1 ------- null}
+ -t 0.408238025805092 -s 7 -d 11 -p rtProtoDV -e 13 -c 0 -i 65 -a 0 -x {7.2 11.1 -1 ------- null}
- -t 0.408238025805092 -s 7 -d 11 -p rtProtoDV -e 13 -c 0 -i 65 -a 0 -x {7.2 11.1 -1 ------- null}
h -t 0.408238025805092 -s 7 -d 11 -p rtProtoDV -e 13 -c 0 -i 65 -a 0 -x {7.2 11.1 -1 ------- null}
+ -t 0.418161768428125 -s 11 -d 6 -p rtProtoDV -e 13 -c 0 -i 66 -a 0 -x {11.1 6.2 -1 ------- null}
- -t 0.418161768428125 -s 11 -d 6 -p rtProtoDV -e 13 -c 0 -i 66 -a 0 -x {11.1 6.2 -1 ------- null}
h -t 0.418161768428125 -s 11 -d 6 -p rtProtoDV -e 13 -c 0 -i 66 -a 0 -x {11.1 6.2 -1 ------- null}
+ -t 0.418161768428125 -s 11 -d 7 -p rtProtoDV -e 13 -c 0 -i 67 -a 0 -x {11.1 7.2 -1 ------- null}
- -t 0.418161768428125 -s 11 -d 7 -p rtProtoDV -e 13 -c 0 -i 67 -a 0 -x {11.1 7.2 -1 ------- null}
h -t 0.418161768428125 -s 11 -d 7 -p rtProtoDV -e 13 -c 0 -i 67 -a 0 -x {11.1 7.2 -1 ------- null}
+ -t 0.418161768428125 -s 11 -d 8 -p rtProtoDV -e 13 -c 0 -i 68 -a 0 -x {11.1 8.2 -1 ------- null}
- -t 0.418161768428125 -s 11 -d 8 -p rtProtoDV -e 13 -c 0 -i 68 -a 0 -x {11.1 8.2 -1 ------- null}
h -t 0.418161768428125 -s 11 -d 8 -p rtProtoDV -e 13 -c 0 -i 68 -a 0 -x {11.1 8.2 -1 ------- null}
+ -t 0.418161768428125 -s 11 -d 9 -p rtProtoDV -e 13 -c 0 -i 69 -a 0 -x {11.1 9.2 -1 ------- null}
- -t 0.418161768428125 -s 11 -d 9 -p rtProtoDV -e 13 -c 0 -i 69 -a 0 -x {11.1 9.2 -1 ------- null}
h -t 0.418161768428125 -s 11 -d 9 -p rtProtoDV -e 13 -c 0 -i 69 -a 0 -x {11.1 9.2 -1 ------- null}
+ -t 0.418161768428125 -s 11 -d 10 -p rtProtoDV -e 13 -c 0 -i 70 -a 0 -x {11.1 10.2 -1 ------- null}
- -t 0.418161768428125 -s 11 -d 10 -p rtProtoDV -e 13 -c 0 -i 70 -a 0 -x {11.1 10.2 -1 ------- null}
h -t 0.418161768428125 -s 11 -d 10 -p rtProtoDV -e 13 -c 0 -i 70 -a 0 -x {11.1 10.2 -1 ------- null}
+ -t 0.418161768428125 -s 11 -d 12 -p rtProtoDV -e 13 -c 0 -i 71 -a 0 -x {11.1 12.11 -1 ------- null}
- -t 0.418161768428125 -s 11 -d 12 -p rtProtoDV -e 13 -c 0 -i 71 -a 0 -x {11.1 12.11 -1 ------- null}
h -t 0.418161768428125 -s 11 -d 12 -p rtProtoDV -e 13 -c 0 -i 71 -a 0 -x {11.1 12.11 -1 ------- null}
r -t 0.419588126796073 -s 5 -d 0 -p rtProtoDV -e 13 -c 0 -i 59 -a 0 -x {5.1 0.2 -1 ------- null}
r -t 0.419588126796073 -s 5 -d 1 -p rtProtoDV -e 13 -c 0 -i 60 -a 0 -x {5.1 1.2 -1 ------- null}
r -t 0.419588126796073 -s 5 -d 2 -p rtProtoDV -e 13 -c 0 -i 61 -a 0 -x {5.1 2.2 -1 ------- null}
r -t 0.419588126796073 -s 5 -d 3 -p rtProtoDV -e 13 -c 0 -i 62 -a 0 -x {5.1 3.2 -1 ------- null}
r -t 0.419588126796073 -s 5 -d 4 -p rtProtoDV -e 13 -c 0 -i 63 -a 0 -x {5.1 4.2 -1 ------- null}
r -t 0.420617726796073 -s 5 -d 12 -p rtProtoDV -e 13 -c 0 -i 64 -a 0 -x {5.1 12.11 -1 ------- null}
r -t 0.428248425805092 -s 7 -d 11 -p rtProtoDV -e 13 -c 0 -i 65 -a 0 -x {7.2 11.1 -1 ------- null}
r -t 0.438172168428125 -s 11 -d 6 -p rtProtoDV -e 13 -c 0 -i 66 -a 0 -x {11.1 6.2 -1 ------- null}
r -t 0.438172168428125 -s 11 -d 7 -p rtProtoDV -e 13 -c 0 -i 67 -a 0 -x {11.1 7.2 -1 ------- null}
r -t 0.438172168428125 -s 11 -d 8 -p rtProtoDV -e 13 -c 0 -i 68 -a 0 -x {11.1 8.2 -1 ------- null}